<?xml version="1.0" encoding="UTF-8"?>

<!-- generated on ter 25 mai 2021 10:54:08 by Eclipse SUMO GUI Version 1.8.0
<configuration xmlns:xsi="http://www.w3.org/2001/XMLSchema-instance" xsi:noNamespaceSchemaLocation="http://sumo.dlr.de/xsd/sumoConfiguration.xsd">

    <input>
        <net-file value="maps/luxembourg/lust2.net.xml"/>
        <route-files value="maps/luxembourg/NewRoutes/new.rou_NormalAlterado.xml"/>
        <additional-files value="maps/luxembourg/vtypes.add.xml"/>
    </input>

    <output>
        <summary-output value="maps/luxembourg/due.actuated.summary.xml"/>
        <tripinfo-output value="maps/luxembourg/due.actuated.tripinfo.xml"/>
    </output>

    <time>
        <begin value="0"/>
        <step-length value="1"/>
    </time>

    <processing>
        <ignore-junction-blocker value="20"/>
        <time-to-teleport value="600"/>
        <max-depart-delay value="600"/>
    </processing>

    <routing>
        <routing-algorithm value="dijkstra"/>
    </routing>

    <report>
        <verbose value="true"/>
        <log value="maps/luxembourg/due.actuated.log"/>
        <message-log value="results/sumo-0.log"/>
        <no-step-log value="true"/>
    </report>

    <traci_server>
        <remote-port value="37849"/>
    </traci_server>

    <random_number>
        <seed value="23423"/>
    </random_number>

    <gui_only>
        <quit-on-end value="true"/>
        <tracker-interval value="1"/>
    </gui_only>

</configuration>
-->

<tripinfos xmlns:xsi="http://www.w3.org/2001/XMLSchema-instance" xsi:noNamespaceSchemaLocation="http://sumo.dlr.de/xsd/tripinfo_file.xsd">
    <tripinfo id="vehicle_5.72" depart="6.00" departLane="-31622#4_0" departPos="5655.28" departSpeed="0.00" departDelay="0.28" arrival="164.00" arrivalLane="-31622#10_1" arrivalPos="655.31" arrivalSpeed="34.33" duration="158.00" routeLength="5278.38" waitingTime="0.00" waitingCount="0" stopTime="0.00" timeLoss="22.75" rerouteNo="0" devices="tripinfo_vehicle_5.72" vType="passenger2a" speedFactor="1.08" vaporized=""/>
    <tripinfo id="vehicle_7.15" depart="8.00" departLane="-31622#4_1" departPos="5114.82" departSpeed="0.00" departDelay="0.85" arrival="201.00" arrivalLane="-31622#10_1" arrivalPos="786.67" arrivalSpeed="32.76" duration="193.00" routeLength="5950.20" waitingTime="0.00" waitingCount="0" stopTime="0.00" timeLoss="32.85" rerouteNo="0" devices="tripinfo_vehicle_7.15" vType="passenger2a" speedFactor="1.03" vaporized=""/>
    <tripinfo id="vehicle_10.01" depart="11.00" departLane="-31622#4_0" departPos="5207.96" departSpeed="0.00" departDelay="0.99" arrival="204.00" arrivalLane="-31622#10_0" arrivalPos="991.09" arrivalSpeed="28.90" duration="193.00" routeLength="6061.48" waitingTime="0.00" waitingCount="0" stopTime="0.00" timeLoss="32.20" rerouteNo="0" devices="tripinfo_vehicle_10.01" vType="passenger2a" speedFactor="1.05" vaporized=""/>
    <tripinfo id="vehicle_30.03" depart="31.00" departLane="-31622#4_2" departPos="4907.78" departSpeed="0.00" departDelay="0.97" arrival="216.00" arrivalLane="-31622#10_2" arrivalPos="61.60" arrivalSpeed="19.26" duration="185.00" routeLength="5432.17" waitingTime="0.00" waitingCount="0" stopTime="0.00" timeLoss="37.07" rerouteNo="0" devices="tripinfo_vehicle_30.03" vType="passenger2a" speedFactor="1.02" vaporized=""/>
    <tripinfo id="vehicle_21.45" depart="22.00" departLane="-31622#4_2" departPos="5295.96" departSpeed="0.00" departDelay="0.55" arrival="219.00" arrivalLane="-31622#10_1" arrivalPos="755.09" arrivalSpeed="24.92" duration="197.00" routeLength="5737.49" waitingTime="0.00" waitingCount="0" stopTime="0.00" timeLoss="36.29" rerouteNo="0" devices="tripinfo_vehicle_21.45" vType="passenger2a" speedFactor="0.99" vaporized=""/>
    <tripinfo id="vehicle_48.62" depart="49.00" departLane="-31622#4_0" departPos="4168.97" departSpeed="0.00" departDelay="0.38" arrival="233.00" arrivalLane="-31622#10_2" arrivalPos="212.16" arrivalSpeed="34.16" duration="184.00" routeLength="6321.54" waitingTime="0.00" waitingCount="0" stopTime="0.00" timeLoss="34.35" rerouteNo="0" devices="tripinfo_vehicle_48.62" vType="passenger2a" speedFactor="1.17" vaporized=""/>
    <tripinfo id="vehicle_20.02" depart="21.00" departLane="-31622#4_1" departPos="3797.03" departSpeed="0.00" departDelay="0.98" arrival="241.00" arrivalLane="-31622#10_2" arrivalPos="602.86" arrivalSpeed="28.61" duration="220.00" routeLength="7084.18" waitingTime="0.00" waitingCount="0" stopTime="0.00" timeLoss="45.08" rerouteNo="0" devices="tripinfo_vehicle_20.02" vType="passenger2a" speedFactor="1.12" vaporized=""/>
    <tripinfo id="vehicle_41.47" depart="42.00" departLane="-31622#4_1" departPos="4863.84" departSpeed="0.00" departDelay="0.53" arrival="241.00" arrivalLane="-31622#10_2" arrivalPos="725.81" arrivalSpeed="34.31" duration="199.00" routeLength="6140.32" waitingTime="0.00" waitingCount="0" stopTime="0.00" timeLoss="48.16" rerouteNo="0" devices="tripinfo_vehicle_41.47" vType="passenger2a" speedFactor="1.13" vaporized=""/>
    <tripinfo id="vehicle_55.77" depart="56.00" departLane="-31622#4_2" departPos="4551.65" departSpeed="0.00" departDelay="0.23" arrival="242.00" arrivalLane="-31622#10_2" arrivalPos="172.51" arrivalSpeed="30.19" duration="186.00" routeLength="5899.22" waitingTime="0.00" waitingCount="0" stopTime="0.00" timeLoss="37.70" rerouteNo="0" devices="tripinfo_vehicle_55.77" vType="passenger2a" speedFactor="1.10" vaporized=""/>
    <tripinfo id="vehicle_31.46" depart="32.00" departLane="-31622#4_0" departPos="4723.61" departSpeed="0.00" departDelay="0.54" arrival="246.00" arrivalLane="-31622#10_1" arrivalPos="684.01" arrivalSpeed="29.94" duration="214.00" routeLength="6238.75" waitingTime="0.00" waitingCount="0" stopTime="0.00" timeLoss="42.67" rerouteNo="0" devices="tripinfo_vehicle_31.46" vType="passenger2a" speedFactor="1.01" vaporized=""/>
    <tripinfo id="vehicle_34.32" depart="35.00" departLane="-31622#4_2" departPos="5746.32" departSpeed="0.00" departDelay="0.68" arrival="246.00" arrivalLane="-31622#10_0" arrivalPos="844.70" arrivalSpeed="26.81" duration="211.00" routeLength="5376.73" waitingTime="0.00" waitingCount="0" stopTime="0.00" timeLoss="42.92" rerouteNo="0" devices="tripinfo_vehicle_34.32" vType="passenger2a" speedFactor="0.89" vaporized=""/>
    <tripinfo id="vehicle_25.74" depart="26.00" departLane="-31622#4_2" departPos="5241.31" departSpeed="0.00" departDelay="0.26" arrival="254.00" arrivalLane="-31622#10_1" arrivalPos="1167.54" arrivalSpeed="33.31" duration="228.00" routeLength="6204.58" waitingTime="0.00" waitingCount="0" stopTime="0.00" timeLoss="44.86" rerouteNo="0" devices="tripinfo_vehicle_25.74" vType="passenger2a" speedFactor="0.94" vaporized=""/>
    <tripinfo id="vehicle_15.73" depart="16.00" departLane="-31622#4_1" departPos="2711.23" departSpeed="0.00" departDelay="0.27" arrival="265.00" arrivalLane="-31622#10_2" arrivalPos="8.05" arrivalSpeed="29.26" duration="249.00" routeLength="7575.17" waitingTime="0.00" waitingCount="0" stopTime="0.00" timeLoss="56.13" rerouteNo="0" devices="tripinfo_vehicle_15.73" vType="passenger2a" speedFactor="1.09" vaporized=""/>
    <tripinfo id="vehicle_67.21" depart="68.00" departLane="-31622#4_1" departPos="4904.74" departSpeed="0.00" departDelay="0.79" arrival="273.00" arrivalLane="-31622#10_2" arrivalPos="321.88" arrivalSpeed="32.12" duration="205.00" routeLength="5695.49" waitingTime="0.00" waitingCount="0" stopTime="0.00" timeLoss="46.15" rerouteNo="0" devices="tripinfo_vehicle_67.21" vType="passenger2a" speedFactor="1.00" vaporized=""/>
    <tripinfo id="vehicle_70.07" depart="73.00" departLane="-31622#4_0" departPos="5292.43" departSpeed="0.00" departDelay="2.93" arrival="278.00" arrivalLane="-31622#10_1" arrivalPos="118.71" arrivalSpeed="22.08" duration="205.00" routeLength="5104.62" waitingTime="0.00" waitingCount="0" stopTime="0.00" timeLoss="43.63" rerouteNo="0" devices="tripinfo_vehicle_70.07" vType="passenger2a" speedFactor="0.88" vaporized=""/>
    <tripinfo id="vehicle_37.18" depart="38.00" departLane="-31622#4_1" departPos="5397.10" departSpeed="0.00" departDelay="0.82" arrival="279.00" arrivalLane="-31622#10_0" arrivalPos="1099.16" arrivalSpeed="22.33" duration="241.00" routeLength="5980.42" waitingTime="0.00" waitingCount="0" stopTime="0.00" timeLoss="50.67" rerouteNo="0" devices="tripinfo_vehicle_37.18" vType="passenger2a" speedFactor="0.87" vaporized=""/>
    <tripinfo id="vehicle_101.53" depart="102.00" departLane="-31622#4_1" departPos="5216.56" departSpeed="0.00" departDelay="0.47" arrival="285.00" arrivalLane="-31622#10_2" arrivalPos="418.51" arrivalSpeed="33.01" duration="183.00" routeLength="5480.30" waitingTime="0.00" waitingCount="0" stopTime="0.00" timeLoss="34.46" rerouteNo="0" devices="tripinfo_vehicle_101.53" vType="passenger2a" speedFactor="1.02" vaporized=""/>
    <tripinfo id="vehicle_14.30" depart="15.00" departLane="-31622#4_0" departPos="4600.27" departSpeed="0.00" departDelay="0.70" arrival="290.00" arrivalLane="-31622#10_0" arrivalPos="993.57" arrivalSpeed="28.98" duration="275.00" routeLength="6671.65" waitingTime="0.00" waitingCount="0" stopTime="0.00" timeLoss="58.90" rerouteNo="0" devices="tripinfo_vehicle_14.30" vType="passenger2a" speedFactor="0.86" vaporized=""/>
    <tripinfo id="vehicle_104.39" depart="105.00" departLane="-31622#4_0" departPos="5278.67" departSpeed="0.00" departDelay="0.61" arrival="295.00" arrivalLane="-31622#10_1" arrivalPos="114.70" arrivalSpeed="29.90" duration="190.00" routeLength="5114.38" waitingTime="0.00" waitingCount="0" stopTime="0.00" timeLoss="39.23" rerouteNo="0" devices="tripinfo_vehicle_104.39" vType="passenger2a" speedFactor="0.94" vaporized=""/>
    <tripinfo id="vehicle_38.61" depart="39.00" departLane="-31622#4_2" departPos="4520.02" departSpeed="0.00" departDelay="0.39" arrival="298.00" arrivalLane="-31622#10_1" arrivalPos="1183.59" arrivalSpeed="29.76" duration="259.00" routeLength="6941.93" waitingTime="0.00" waitingCount="0" stopTime="0.00" timeLoss="48.61" rerouteNo="0" devices="tripinfo_vehicle_38.61" vType="passenger2a" speedFactor="0.92" vaporized=""/>
    <tripinfo id="vehicle_1.43" depart="2.00" departLane="-31622#4_0" departPos="3166.40" departSpeed="0.00" departDelay="0.57" arrival="299.00" arrivalLane="-31622#10_0" arrivalPos="950.07" arrivalSpeed="23.34" duration="297.00" routeLength="8062.02" waitingTime="0.00" waitingCount="0" stopTime="0.00" timeLoss="58.99" rerouteNo="0" devices="tripinfo_vehicle_1.43" vType="passenger2a" speedFactor="0.94" vaporized=""/>
    <tripinfo id="vehicle_80.08" depart="81.00" departLane="-31622#4_1" departPos="4272.36" departSpeed="0.00" departDelay="0.92" arrival="310.00" arrivalLane="-31622#10_1" arrivalPos="410.41" arrivalSpeed="31.24" duration="229.00" routeLength="6416.41" waitingTime="0.00" waitingCount="0" stopTime="0.00" timeLoss="50.32" rerouteNo="0" devices="tripinfo_vehicle_80.08" vType="passenger2a" speedFactor="1.00" vaporized=""/>
    <tripinfo id="vehicle_100.10" depart="101.00" departLane="-31622#4_0" departPos="5431.10" departSpeed="0.00" departDelay="0.90" arrival="313.00" arrivalLane="-31622#10_2" arrivalPos="1323.13" arrivalSpeed="35.98" duration="212.00" routeLength="6170.38" waitingTime="0.00" waitingCount="0" stopTime="0.00" timeLoss="43.99" rerouteNo="0" devices="tripinfo_vehicle_100.10" vType="passenger2a" speedFactor="1.02" vaporized=""/>
    <tripinfo id="vehicle_115.83" depart="117.00" departLane="-31622#4_2" departPos="5404.69" departSpeed="0.00" departDelay="1.17" arrival="324.00" arrivalLane="-31622#10_2" arrivalPos="386.75" arrivalSpeed="29.75" duration="207.00" routeLength="5260.41" waitingTime="0.00" waitingCount="0" stopTime="0.00" timeLoss="65.99" rerouteNo="0" devices="tripinfo_vehicle_115.83" vType="passenger2a" speedFactor="1.03" vaporized=""/>
    <tripinfo id="vehicle_24.31" depart="25.00" departLane="-31622#4_1" departPos="2804.19" departSpeed="0.00" departDelay="0.69" arrival="331.00" arrivalLane="-31622#10_1" arrivalPos="80.35" arrivalSpeed="23.11" duration="306.00" routeLength="7554.51" waitingTime="0.00" waitingCount="0" stopTime="0.00" timeLoss="67.41" rerouteNo="0" devices="tripinfo_vehicle_24.31" vType="passenger2a" speedFactor="0.88" vaporized=""/>
    <tripinfo id="vehicle_52.91" depart="55.00" departLane="-31622#4_0" departPos="3341.23" departSpeed="0.00" departDelay="2.09" arrival="334.00" arrivalLane="-31622#10_2" arrivalPos="913.50" arrivalSpeed="22.58" duration="279.00" routeLength="7850.63" waitingTime="0.00" waitingCount="0" stopTime="0.00" timeLoss="55.22" rerouteNo="0" devices="tripinfo_vehicle_52.91" vType="passenger2a" speedFactor="0.97" vaporized=""/>
    <tripinfo id="vehicle_8.58" depart="9.00" departLane="-31622#4_2" departPos="2782.75" departSpeed="0.00" departDelay="0.42" arrival="335.00" arrivalLane="-31622#10_1" arrivalPos="58.15" arrivalSpeed="23.55" duration="326.00" routeLength="7553.76" waitingTime="0.00" waitingCount="0" stopTime="0.00" timeLoss="74.26" rerouteNo="0" devices="tripinfo_vehicle_8.58" vType="passenger2a" speedFactor="0.83" vaporized=""/>
    <tripinfo id="vehicle_138.71" depart="139.00" departLane="-31622#4_0" departPos="5733.83" departSpeed="0.00" departDelay="0.29" arrival="335.00" arrivalLane="-31622#10_1" arrivalPos="833.71" arrivalSpeed="27.43" duration="196.00" routeLength="5378.23" waitingTime="0.00" waitingCount="0" stopTime="0.00" timeLoss="48.45" rerouteNo="0" devices="tripinfo_vehicle_138.71" vType="passenger2a" speedFactor="1.01" vaporized=""/>
    <tripinfo id="vehicle_114.40" depart="115.00" departLane="-31622#4_1" departPos="4774.76" departSpeed="0.00" departDelay="0.60" arrival="341.00" arrivalLane="-31622#10_2" arrivalPos="469.17" arrivalSpeed="31.10" duration="226.00" routeLength="5972.76" waitingTime="0.00" waitingCount="0" stopTime="0.00" timeLoss="73.47" rerouteNo="0" devices="tripinfo_vehicle_114.40" vType="passenger2a" speedFactor="1.09" vaporized=""/>
    <tripinfo id="vehicle_78.65" depart="79.00" departLane="-31622#4_0" departPos="4321.32" departSpeed="0.00" departDelay="0.35" arrival="343.00" arrivalLane="-31622#10_1" arrivalPos="1280.02" arrivalSpeed="22.32" duration="264.00" routeLength="7237.06" waitingTime="0.00" waitingCount="0" stopTime="0.00" timeLoss="63.85" rerouteNo="0" devices="tripinfo_vehicle_78.65" vType="passenger2a" speedFactor="1.00" vaporized=""/>
    <tripinfo id="vehicle_72.93" depart="74.00" departLane="-31622#4_2" departPos="4571.75" departSpeed="0.00" departDelay="1.07" arrival="352.00" arrivalLane="-31622#10_0" arrivalPos="954.16" arrivalSpeed="18.80" duration="278.00" routeLength="6660.76" waitingTime="0.00" waitingCount="0" stopTime="0.00" timeLoss="62.19" rerouteNo="0" devices="tripinfo_vehicle_72.93" vType="passenger2a" speedFactor="0.85" vaporized=""/>
    <tripinfo id="vehicle_45.76" depart="47.00" departLane="-31622#4_1" departPos="2574.28" departSpeed="0.00" departDelay="1.24" arrival="354.00" arrivalLane="-31622#10_2" arrivalPos="402.38" arrivalSpeed="23.57" duration="307.00" routeLength="8106.46" waitingTime="0.00" waitingCount="0" stopTime="0.00" timeLoss="112.32" rerouteNo="0" devices="tripinfo_vehicle_45.76" vType="passenger2a" speedFactor="1.15" vaporized=""/>
    <tripinfo id="vehicle_143.00" depart="143.00" departLane="-31622#4_0" departPos="5285.53" departSpeed="0.00" departDelay="0.00" arrival="358.00" arrivalLane="-31622#10_2" arrivalPos="566.85" arrivalSpeed="27.53" duration="215.00" routeLength="5559.67" waitingTime="0.00" waitingCount="0" stopTime="0.00" timeLoss="74.28" rerouteNo="0" devices="tripinfo_vehicle_143.00" vType="passenger2a" speedFactor="1.10" vaporized=""/>
    <tripinfo id="vehicle_27.17" depart="28.00" departLane="-31622#4_0" departPos="2374.40" departSpeed="0.00" departDelay="0.83" arrival="359.00" arrivalLane="-31622#10_2" arrivalPos="429.32" arrivalSpeed="31.27" duration="331.00" routeLength="8333.27" waitingTime="0.00" waitingCount="0" stopTime="0.00" timeLoss="83.59" rerouteNo="0" devices="tripinfo_vehicle_27.17" vType="passenger2a" speedFactor="0.94" vaporized=""/>
    <tripinfo id="vehicle_12.87" depart="13.00" departLane="-31622#4_2" departPos="1993.75" departSpeed="0.00" departDelay="0.13" arrival="360.00" arrivalLane="-31622#10_1" arrivalPos="727.09" arrivalSpeed="24.40" duration="347.00" routeLength="9011.69" waitingTime="0.00" waitingCount="0" stopTime="0.00" timeLoss="80.43" rerouteNo="0" devices="tripinfo_vehicle_12.87" vType="passenger2a" speedFactor="0.94" vaporized=""/>
    <tripinfo id="vehicle_157.30" depart="158.00" departLane="-31622#4_1" departPos="5167.02" departSpeed="0.00" departDelay="0.70" arrival="362.00" arrivalLane="-31622#10_1" arrivalPos="135.38" arrivalSpeed="29.74" duration="204.00" routeLength="5246.71" waitingTime="0.00" waitingCount="0" stopTime="0.00" timeLoss="52.07" rerouteNo="0" devices="tripinfo_vehicle_157.30" vType="passenger2a" speedFactor="0.96" vaporized=""/>
    <tripinfo id="vehicle_44.33" depart="45.00" departLane="-31622#4_0" departPos="1196.29" departSpeed="0.00" departDelay="0.67" arrival="364.00" arrivalLane="-31622#10_2" arrivalPos="43.23" arrivalSpeed="36.71" duration="319.00" routeLength="9125.29" waitingTime="0.00" waitingCount="0" stopTime="0.00" timeLoss="103.90" rerouteNo="0" devices="tripinfo_vehicle_44.33" vType="passenger2a" speedFactor="1.18" vaporized=""/>
    <tripinfo id="vehicle_17.16" depart="18.00" departLane="-31622#4_2" departPos="1953.53" departSpeed="0.00" departDelay="0.84" arrival="367.00" arrivalLane="-31622#10_2" arrivalPos="897.41" arrivalSpeed="22.31" duration="349.00" routeLength="9222.23" waitingTime="0.00" waitingCount="0" stopTime="0.00" timeLoss="99.70" rerouteNo="0" devices="tripinfo_vehicle_17.16" vType="passenger2a" speedFactor="1.03" vaporized=""/>
    <tripinfo id="vehicle_51.48" depart="52.00" departLane="-31622#4_2" departPos="2112.95" departSpeed="0.00" departDelay="0.52" arrival="369.00" arrivalLane="-31622#10_2" arrivalPos="39.77" arrivalSpeed="34.46" duration="317.00" routeLength="8205.16" waitingTime="0.00" waitingCount="0" stopTime="0.00" timeLoss="93.32" rerouteNo="0" devices="tripinfo_vehicle_51.48" vType="passenger2a" speedFactor="1.02" vaporized=""/>
    <tripinfo id="vehicle_40.04" depart="41.00" departLane="-31622#4_0" departPos="2668.57" departSpeed="0.00" departDelay="0.96" arrival="371.00" arrivalLane="-31622#10_2" arrivalPos="528.81" arrivalSpeed="26.53" duration="330.00" routeLength="8138.59" waitingTime="0.00" waitingCount="0" stopTime="0.00" timeLoss="91.80" rerouteNo="0" devices="tripinfo_vehicle_40.04" vType="passenger2a" speedFactor="0.95" vaporized=""/>
    <tripinfo id="vehicle_154.44" depart="155.00" departLane="-31622#4_2" departPos="5337.42" departSpeed="0.00" departDelay="0.56" arrival="371.00" arrivalLane="-31622#10_1" arrivalPos="457.20" arrivalSpeed="21.09" duration="216.00" routeLength="5398.13" waitingTime="0.00" waitingCount="0" stopTime="0.00" timeLoss="71.38" rerouteNo="0" devices="tripinfo_vehicle_154.44" vType="passenger2a" speedFactor="1.03" vaporized=""/>
    <tripinfo id="vehicle_32.89" depart="33.00" departLane="-31622#4_1" departPos="2268.38" departSpeed="0.00" departDelay="0.11" arrival="372.00" arrivalLane="-31622#10_2" arrivalPos="409.45" arrivalSpeed="25.87" duration="339.00" routeLength="8419.42" waitingTime="0.00" waitingCount="0" stopTime="0.00" timeLoss="99.22" rerouteNo="0" devices="tripinfo_vehicle_32.89" vType="passenger2a" speedFactor="0.98" vaporized=""/>
    <tripinfo id="vehicle_81.51" depart="82.00" departLane="-31622#4_2" departPos="3840.15" departSpeed="0.00" departDelay="0.49" arrival="374.00" arrivalLane="-31622#10_1" arrivalPos="656.81" arrivalSpeed="31.58" duration="292.00" routeLength="7095.02" waitingTime="0.00" waitingCount="0" stopTime="0.00" timeLoss="72.99" rerouteNo="0" devices="tripinfo_vehicle_81.51" vType="passenger2a" speedFactor="0.90" vaporized=""/>
    <tripinfo id="vehicle_91.52" depart="92.00" departLane="-31622#4_0" departPos="3485.23" departSpeed="0.00" departDelay="0.48" arrival="374.00" arrivalLane="-31622#10_2" arrivalPos="37.12" arrivalSpeed="29.82" duration="282.00" routeLength="6830.25" waitingTime="0.00" waitingCount="0" stopTime="0.00" timeLoss="90.13" rerouteNo="0" devices="tripinfo_vehicle_91.52" vType="passenger2a" speedFactor="0.99" vaporized=""/>
    <tripinfo id="vehicle_112.97" depart="113.00" departLane="-31622#4_0" departPos="4387.28" departSpeed="0.00" departDelay="0.03" arrival="379.00" arrivalLane="-31622#10_2" arrivalPos="962.58" arrivalSpeed="35.86" duration="266.00" routeLength="6853.65" waitingTime="0.00" waitingCount="0" stopTime="0.00" timeLoss="76.87" rerouteNo="0" devices="tripinfo_vehicle_112.97" vType="passenger2a" speedFactor="1.01" vaporized=""/>
    <tripinfo id="vehicle_75.79" depart="76.00" departLane="-31622#4_1" departPos="3283.68" departSpeed="0.00" departDelay="0.21" arrival="392.00" arrivalLane="-31622#10_2" arrivalPos="922.22" arrivalSpeed="30.70" duration="316.00" routeLength="7916.89" waitingTime="0.00" waitingCount="0" stopTime="0.00" timeLoss="100.24" rerouteNo="0" devices="tripinfo_vehicle_75.79" vType="passenger2a" speedFactor="1.02" vaporized=""/>
    <tripinfo id="vehicle_170.17" depart="171.00" departLane="-31622#4_1" departPos="5700.54" departSpeed="0.00" departDelay="0.83" arrival="395.00" arrivalLane="-31622#10_2" arrivalPos="1176.09" arrivalSpeed="28.61" duration="224.00" routeLength="5753.91" waitingTime="0.00" waitingCount="0" stopTime="0.00" timeLoss="62.94" rerouteNo="0" devices="tripinfo_vehicle_170.17" vType="passenger2a" speedFactor="0.99" vaporized=""/>
    <tripinfo id="vehicle_98.67" depart="100.00" departLane="-31622#4_2" departPos="3145.98" departSpeed="0.00" departDelay="1.33" arrival="396.00" arrivalLane="-31622#10_2" arrivalPos="238.66" arrivalSpeed="25.79" duration="296.00" routeLength="7371.03" waitingTime="0.00" waitingCount="0" stopTime="0.00" timeLoss="99.62" rerouteNo="0" devices="tripinfo_vehicle_98.67" vType="passenger2a" speedFactor="1.04" vaporized=""/>
    <tripinfo id="vehicle_47.19" depart="48.00" departLane="-31622#4_2" departPos="1864.58" departSpeed="0.00" departDelay="0.81" arrival="398.00" arrivalLane="-31622#10_2" arrivalPos="1019.42" arrivalSpeed="33.01" duration="350.00" routeLength="9433.19" waitingTime="0.00" waitingCount="0" stopTime="0.00" timeLoss="90.05" rerouteNo="0" devices="tripinfo_vehicle_47.19" vType="passenger2a" speedFactor="1.01" vaporized=""/>
    <tripinfo id="vehicle_64.35" depart="66.00" departLane="-31622#4_2" departPos="1849.65" departSpeed="0.00" departDelay="1.65" arrival="398.00" arrivalLane="-31622#10_2" arrivalPos="223.95" arrivalSpeed="25.69" duration="332.00" routeLength="8652.66" waitingTime="0.00" waitingCount="0" stopTime="0.00" timeLoss="101.92" rerouteNo="0" devices="tripinfo_vehicle_64.35" vType="passenger2a" speedFactor="1.04" vaporized=""/>
    <tripinfo id="vehicle_28.60" depart="29.00" departLane="-31622#4_1" departPos="659.19" departSpeed="0.00" departDelay="0.40" arrival="399.00" arrivalLane="-31622#10_2" arrivalPos="911.55" arrivalSpeed="41.60" duration="370.00" routeLength="10530.71" waitingTime="0.00" waitingCount="0" stopTime="0.00" timeLoss="117.39" rerouteNo="0" devices="tripinfo_vehicle_28.60" vType="passenger2a" speedFactor="1.16" vaporized=""/>
    <tripinfo id="vehicle_97.24" depart="98.00" departLane="-31622#4_1" departPos="3339.00" departSpeed="0.00" departDelay="0.76" arrival="399.00" arrivalLane="-31622#10_2" arrivalPos="89.31" arrivalSpeed="28.05" duration="301.00" routeLength="7028.66" waitingTime="0.00" waitingCount="0" stopTime="0.00" timeLoss="87.98" rerouteNo="0" devices="tripinfo_vehicle_97.24" vType="passenger2a" speedFactor="0.91" vaporized=""/>
    <tripinfo id="vehicle_4.29" depart="5.00" departLane="-31622#4_2" departPos="84.32" departSpeed="0.00" departDelay="0.71" arrival="401.00" arrivalLane="-31622#10_2" arrivalPos="60.64" arrivalSpeed="25.96" duration="396.00" routeLength="10254.68" waitingTime="0.00" waitingCount="0" stopTime="0.00" timeLoss="114.24" rerouteNo="0" devices="tripinfo_vehicle_4.29" vType="passenger2a" speedFactor="1.01" vaporized=""/>
    <tripinfo id="vehicle_42.90" depart="43.00" departLane="-31622#4_2" departPos="1918.78" departSpeed="0.00" departDelay="0.10" arrival="405.00" arrivalLane="-31622#10_2" arrivalPos="315.65" arrivalSpeed="28.06" duration="362.00" routeLength="8675.22" waitingTime="0.00" waitingCount="0" stopTime="0.00" timeLoss="103.61" rerouteNo="0" devices="tripinfo_vehicle_42.90" vType="passenger2a" speedFactor="0.93" vaporized=""/>
    <tripinfo id="vehicle_50.05" depart="51.00" departLane="-31622#4_1" departPos="2563.15" departSpeed="0.00" departDelay="0.95" arrival="408.00" arrivalLane="-31622#10_1" arrivalPos="1275.56" arrivalSpeed="26.79" duration="357.00" routeLength="8990.76" waitingTime="0.00" waitingCount="0" stopTime="0.00" timeLoss="106.61" rerouteNo="0" devices="tripinfo_vehicle_50.05" vType="passenger2a" speedFactor="0.99" vaporized=""/>
    <tripinfo id="vehicle_145.86" depart="148.00" departLane="-31622#4_2" departPos="4464.13" departSpeed="0.00" departDelay="2.14" arrival="408.00" arrivalLane="-31622#10_2" arrivalPos="607.75" arrivalSpeed="30.09" duration="260.00" routeLength="6421.97" waitingTime="0.00" waitingCount="0" stopTime="0.00" timeLoss="73.33" rerouteNo="0" devices="tripinfo_vehicle_145.86" vType="passenger2a" speedFactor="0.96" vaporized=""/>
    <tripinfo id="vehicle_165.88" depart="167.00" departLane="-31622#4_1" departPos="4913.93" departSpeed="0.00" departDelay="1.12" arrival="413.00" arrivalLane="-31622#10_2" arrivalPos="165.74" arrivalSpeed="19.68" duration="246.00" routeLength="5530.16" waitingTime="0.00" waitingCount="0" stopTime="0.00" timeLoss="79.40" rerouteNo="0" devices="tripinfo_vehicle_165.88" vType="passenger2a" speedFactor="0.92" vaporized=""/>
    <tripinfo id="vehicle_85.80" depart="86.00" departLane="-31622#4_2" departPos="3392.51" departSpeed="0.00" departDelay="0.20" arrival="415.00" arrivalLane="-31622#10_1" arrivalPos="1273.31" arrivalSpeed="25.96" duration="329.00" routeLength="8159.15" waitingTime="0.00" waitingCount="0" stopTime="0.00" timeLoss="95.44" rerouteNo="0" devices="tripinfo_vehicle_85.80" vType="passenger2a" speedFactor="0.97" vaporized=""/>
    <tripinfo id="vehicle_160.16" depart="161.00" departLane="-31622#4_0" departPos="5194.73" departSpeed="0.00" departDelay="0.84" arrival="416.00" arrivalLane="-31622#10_0" arrivalPos="882.49" arrivalSpeed="25.43" duration="255.00" routeLength="5966.12" waitingTime="0.00" waitingCount="0" stopTime="0.00" timeLoss="63.40" rerouteNo="0" devices="tripinfo_vehicle_160.16" vType="passenger2a" speedFactor="0.87" vaporized=""/>
    <tripinfo id="vehicle_35.75" depart="36.00" departLane="-31622#4_0" departPos="2810.15" departSpeed="0.00" departDelay="0.25" arrival="420.00" arrivalLane="-31622#10_0" arrivalPos="1252.15" arrivalSpeed="16.53" duration="384.00" routeLength="8720.35" waitingTime="0.00" waitingCount="0" stopTime="0.00" timeLoss="91.07" rerouteNo="0" devices="tripinfo_vehicle_35.75" vType="passenger2a" speedFactor="0.83" vaporized=""/>
    <tripinfo id="vehicle_65.78" depart="66.00" departLane="-31622#4_0" departPos="1444.17" departSpeed="0.00" departDelay="0.22" arrival="420.00" arrivalLane="-31622#10_2" arrivalPos="762.21" arrivalSpeed="39.03" duration="354.00" routeLength="9596.39" waitingTime="0.00" waitingCount="0" stopTime="0.00" timeLoss="109.67" rerouteNo="0" devices="tripinfo_vehicle_65.78" vType="passenger2a" speedFactor="1.09" vaporized=""/>
    <tripinfo id="vehicle_193.05" depart="196.00" departLane="-31622#4_2" departPos="5192.47" departSpeed="0.00" departDelay="2.95" arrival="420.00" arrivalLane="-31622#10_2" arrivalPos="907.87" arrivalSpeed="35.06" duration="224.00" routeLength="5993.75" waitingTime="0.00" waitingCount="0" stopTime="0.00" timeLoss="88.30" rerouteNo="0" devices="tripinfo_vehicle_193.05" vType="passenger2a" speedFactor="1.23" vaporized=""/>
    <tripinfo id="vehicle_158.73" depart="167.00" departLane="-31622#4_2" departPos="5134.95" departSpeed="0.00" departDelay="8.27" arrival="423.00" arrivalLane="-31622#10_1" arrivalPos="621.82" arrivalSpeed="31.47" duration="256.00" routeLength="5765.22" waitingTime="0.00" waitingCount="0" stopTime="0.00" timeLoss="83.41" rerouteNo="0" devices="tripinfo_vehicle_158.73" vType="passenger2a" speedFactor="0.93" vaporized=""/>
    <tripinfo id="vehicle_54.34" depart="55.00" departLane="-31622#4_1" departPos="746.56" departSpeed="0.00" departDelay="0.66" arrival="426.00" arrivalLane="-31622#10_2" arrivalPos="441.78" arrivalSpeed="34.09" duration="371.00" routeLength="9973.57" waitingTime="0.00" waitingCount="0" stopTime="0.00" timeLoss="136.52" rerouteNo="0" devices="tripinfo_vehicle_54.34" vType="passenger2a" speedFactor="1.18" vaporized=""/>
    <tripinfo id="vehicle_153.01" depart="155.00" departLane="-31622#4_1" departPos="3747.10" departSpeed="0.00" departDelay="1.99" arrival="427.00" arrivalLane="-31622#10_2" arrivalPos="548.15" arrivalSpeed="26.03" duration="272.00" routeLength="7079.40" waitingTime="0.00" waitingCount="0" stopTime="0.00" timeLoss="78.51" rerouteNo="0" devices="tripinfo_vehicle_153.01" vType="passenger2a" speedFactor="1.01" vaporized=""/>
    <tripinfo id="vehicle_11.44" depart="12.00" departLane="-31622#4_1" departPos="965.67" departSpeed="0.00" departDelay="0.56" arrival="429.00" arrivalLane="-31622#10_1" arrivalPos="330.03" arrivalSpeed="26.14" duration="417.00" routeLength="9642.70" waitingTime="0.00" waitingCount="0" stopTime="0.00" timeLoss="115.01" rerouteNo="0" devices="tripinfo_vehicle_11.44" vType="passenger2a" speedFactor="0.89" vaporized=""/>