<?xml version="1.0" encoding="UTF-8"?>

<!-- generated on 2021-05-04 14:42:32 by Eclipse SUMO GUI Version 1.9.1
<configuration xmlns:xsi="http://www.w3.org/2001/XMLSchema-instance" xsi:noNamespaceSchemaLocation="http://sumo.dlr.de/xsd/sumoConfiguration.xsd">

    <input>
        <net-file value="maps/luxembourg/lust2.net.xml"/>
        <route-files value="maps/luxembourg/NewRoutes/new.rou.xml"/>
        <additional-files value="maps/luxembourg/vtypes.add.xml"/>
    </input>

    <output>
        <summary-output value="maps/luxembourg/due.actuated.summary.xml"/>
        <tripinfo-output value="maps/luxembourg/due.actuated.tripinfo.xml"/>
    </output>

    <time>
        <begin value="0"/>
        <step-length value="1"/>
    </time>

    <processing>
        <ignore-junction-blocker value="20"/>
        <time-to-teleport value="600"/>
        <max-depart-delay value="600"/>
    </processing>

    <routing>
        <routing-algorithm value="dijkstra"/>
    </routing>

    <report>
        <verbose value="true"/>
        <log value="maps/luxembourg/due.actuated.log"/>
        <message-log value="results/sumo-0.log"/>
        <no-step-log value="true"/>
    </report>

    <traci_server>
        <remote-port value="37187"/>
    </traci_server>

    <random_number>
        <seed value="23423"/>
    </random_number>

    <gui_only>
        <quit-on-end value="true"/>
        <tracker-interval value="1"/>
    </gui_only>

</configuration>
-->

<tripinfos xmlns:xsi="http://www.w3.org/2001/XMLSchema-instance" xsi:noNamespaceSchemaLocation="http://sumo.dlr.de/xsd/tripinfo_file.xsd">
</tripinfos>
